<?xml version="1.0" encoding="UTF-8"?>

<!-- generated on 2025-08-19 17:30:26 by Eclipse SUMO libsumo Version 1.24.0
<libsumoConfiguration xmlns:xsi="http://www.w3.org/2001/XMLSchema-instance" xsi:noNamespaceSchemaLocation="http://sumo.dlr.de/xsd/libsumoConfiguration.xsd">

    <input>
        <net-file value="data/input/sumo/PhuQuoc_v2/phuquoc.net.xml"/>
        <route-files value="data/input/sumo/PhuQuoc_v2/phuquoc.rou.xml,data/input/sumo/PhuQuoc_v2/ phuquoc-demo.rou.xml"/>
        <additional-files value="data/input/sumo/PhuQuoc_v2/e2.add.xml"/>
    </input>

    <output>
        <fcd-output value="fcd.xml"/>
    </output>

    <time>
        <step-length value="0.1"/>
    </time>

    <processing>
        <lateral-resolution value="0.1"/>
        <ignore-route-errors value="true"/>
        <time-to-teleport value="60"/>
        <tls.actuated.jam-threshold value="30"/>
    </processing>

    <routing>
        <device.rerouting.adaptation-steps value="18"/>
        <device.rerouting.adaptation-interval value="10"/>
    </routing>

    <report>
        <verbose value="false"/>
        <no-warnings value="true"/>
        <duration-log.statistics value="true"/>
        <no-step-log value="true"/>
    </report>

    <gui_only>
        <gui-settings-file value="data/input/sumo/PhuQuoc_v2/phuquoc.view.xml"/>
        <start value="true"/>
    </gui_only>

</libsumoConfiguration>
-->

<fcd-export xmlns:xsi="http://www.w3.org/2001/XMLSchema-instance" xsi:noNamespaceSchemaLocation="http://sumo.dlr.de/xsd/fcd_file.xsd">
    <timestep time="0.00">
        <vehicle id="0" x="4764.76" y="-2449.75" angle="312.15" type="car" speed="22.22" pos="252.79" lane="721126897#2_0" slope="0.00"/>
    </timestep>
    <timestep time="0.10">
        <vehicle id="0" x="4763.11" y="-2448.26" angle="312.15" type="car" speed="22.18" pos="255.01" lane="721126897#2_0" slope="0.00"/>
    </timestep>
    <timestep time="0.20">
        <vehicle id="0" x="4761.46" y="-2446.77" angle="312.15" type="car" speed="22.17" pos="257.22" lane="721126897#2_0" slope="0.00"/>
    </timestep>
    <timestep time="0.30">
        <vehicle id="0" x="4759.81" y="-2445.27" angle="312.15" type="car" speed="22.22" pos="259.44" lane="721126897#2_0" slope="0.00"/>
    </timestep>
    <timestep time="0.40">
        <vehicle id="0" x="4758.16" y="-2443.78" angle="312.15" type="car" speed="22.15" pos="261.66" lane="721126897#2_0" slope="0.00"/>
    </timestep>
    <timestep time="0.50">
        <vehicle id="0" x="4756.51" y="-2442.29" angle="312.15" type="car" speed="22.13" pos="263.87" lane="721126897#2_0" slope="0.00"/>
    </timestep>
    <timestep time="0.60">
        <vehicle id="0" x="4754.87" y="-2440.79" angle="312.15" type="car" speed="22.15" pos="266.09" lane="721126897#2_0" slope="0.00"/>
        <vehicle id="1" x="2639.46" y="1891.85" angle="334.77" type="DEFAULT_BIKETYPE" speed="6.01" pos="166.52" lane="100954163#8_0" slope="0.00"/>
    </timestep>
    <timestep time="0.70">
        <vehicle id="0" x="4753.22" y="-2439.30" angle="312.15" type="car" speed="22.15" pos="268.30" lane="721126897#2_0" slope="0.00"/>
        <vehicle id="1" x="2639.22" y="1892.39" angle="335.13" type="DEFAULT_BIKETYPE" speed="5.98" pos="167.11" lane="100954163#8_0" slope="0.00"/>
    </timestep>
    <timestep time="0.80">
        <vehicle id="0" x="4751.57" y="-2437.81" angle="312.15" type="car" speed="22.13" pos="270.52" lane="721126897#2_0" slope="0.00"/>
        <vehicle id="1" x="2638.98" y="1892.94" angle="335.71" type="DEFAULT_BIKETYPE" speed="5.98" pos="167.71" lane="100954163#8_0" slope="0.00"/>
    </timestep>
    <timestep time="0.90">
        <vehicle id="0" x="4749.92" y="-2436.32" angle="312.15" type="car" speed="22.15" pos="272.73" lane="721126897#2_0" slope="0.00"/>
        <vehicle id="1" x="2638.75" y="1893.50" angle="336.43" type="DEFAULT_BIKETYPE" speed="5.99" pos="168.31" lane="100954163#8_0" slope="0.00"/>
    </timestep>
    <timestep time="1.00">
        <vehicle id="0" x="4748.27" y="-2434.82" angle="312.15" type="car" speed="22.18" pos="274.95" lane="721126897#2_0" slope="0.00"/>
        <vehicle id="1" x="2638.53" y="1894.05" angle="337.24" type="DEFAULT_BIKETYPE" speed="5.97" pos="168.91" lane="100954163#8_0" slope="0.00"/>
    </timestep>
    <timestep time="1.10">
        <vehicle id="0" x="4746.62" y="-2433.33" angle="312.15" type="car" speed="22.13" pos="277.16" lane="721126897#2_0" slope="0.00"/>
        <vehicle id="1" x="2638.33" y="1894.61" angle="338.11" type="DEFAULT_BIKETYPE" speed="5.97" pos="169.51" lane="100954163#8_0" slope="0.00"/>
    </timestep>
    <timestep time="1.20">
        <vehicle id="0" x="4744.97" y="-2431.84" angle="312.15" type="car" speed="22.18" pos="279.38" lane="721126897#2_0" slope="0.00"/>
        <vehicle id="1" x="2638.12" y="1895.18" angle="339.00" type="DEFAULT_BIKETYPE" speed="5.99" pos="170.10" lane="100954163#8_0" slope="0.00"/>
        <vehicle id="2" x="4478.85" y="-33.18" angle="45.01" type="motorbike" speed="16.67" pos="19.40" lane="721131937#2_2" slope="0.00"/>
    </timestep>
    <timestep time="1.30">
        <vehicle id="0" x="4743.32" y="-2430.35" angle="312.15" type="car" speed="22.15" pos="281.59" lane="721126897#2_0" slope="0.00"/>
        <vehicle id="1" x="2637.93" y="1895.75" angle="339.92" type="DEFAULT_BIKETYPE" speed="5.98" pos="170.70" lane="100954163#8_0" slope="0.00"/>
        <vehicle id="2" x="4480.02" y="-32.01" angle="45.01" type="motorbike" speed="16.59" pos="21.06" lane="721131937#2_2" slope="0.00"/>
    </timestep>
    <timestep time="1.40">
        <vehicle id="0" x="4741.67" y="-2428.85" angle="312.15" type="car" speed="22.13" pos="0.10" lane=":6082322801_0_0" slope="0.00"/>
        <vehicle id="1" x="2637.75" y="1896.33" angle="340.85" type="DEFAULT_BIKETYPE" speed="5.99" pos="171.30" lane="100954163#8_0" slope="0.00"/>
        <vehicle id="2" x="4481.18" y="-30.85" angle="45.01" type="motorbike" speed="16.52" pos="22.71" lane="721131937#2_2" slope="0.00"/>
    </timestep>
    <timestep time="1.50">
        <vehicle id="0" x="4739.91" y="-2427.28" angle="311.96" type="car" speed="22.20" pos="2.32" lane=":6082322801_0_0" slope="0.00"/>
        <vehicle id="1" x="2637.58" y="1896.91" angle="341.78" type="DEFAULT_BIKETYPE" speed="5.99" pos="171.90" lane="100954163#8_0" slope="0.00"/>
        <vehicle id="2" x="4482.35" y="-29.68" angle="45.01" type="motorbike" speed="16.63" pos="24.38" lane="721131937#2_2" slope="0.00"/>
    </timestep>
    <timestep time="1.60">
        <vehicle id="0" x="4738.11" y="-2425.78" angle="310.72" type="car" speed="22.13" pos="4.53" lane=":6082322801_0_0" slope="0.00"/>
        <vehicle id="1" x="2637.41" y="1897.49" angle="342.72" type="DEFAULT_BIKETYPE" speed="5.99" pos="172.50" lane="100954163#8_0" slope="0.00"/>
        <vehicle id="2" x="4483.52" y="-28.51" angle="45.01" type="motorbike" speed="16.62" pos="26.04" lane="721131937#2_2" slope="0.00"/>
    </timestep>
    <timestep time="1.70">
        <vehicle id="0" x="4736.17" y="-2424.44" angle="307.27" type="car" speed="22.21" pos="6.75" lane=":6082322801_0_0" slope="0.00"/>
        <vehicle id="1" x="2637.25" y="1898.08" angle="343.30" type="DEFAULT_BIKETYPE" speed="5.98" pos="173.10" lane="100954163#8_0" slope="0.00"/>
        <vehicle id="2" x="4484.69" y="-27.35" angle="45.01" type="motorbike" speed="16.55" pos="27.69" lane="721131937#2_2" slope="0.00"/>
    </timestep>
    <timestep time="1.80">
        <vehicle id="0" x="4734.16" y="-2423.22" angle="303.11" type="car" speed="22.16" pos="8.97" lane=":6082322801_0_0" slope="0.00"/>
        <vehicle id="1" x="2637.08" y="1898.66" angle="343.66" type="DEFAULT_BIKETYPE" speed="5.99" pos="173.70" lane="100954163#8_0" slope="0.00"/>
        <vehicle id="2" x="4485.86" y="-26.17" angle="45.01" type="motorbike" speed="16.65" pos="29.36" lane="721131937#2_2" slope="0.00"/>
        <vehicle id="3" x="3779.65" y="3955.46" angle="73.37" type="car" speed="11.51" pos="40.66" lane="721131967_0" slope="0.00"/>
    </timestep>
    <timestep time="1.90">
        <vehicle id="0" x="4732.17" y="-2422.04" angle="300.97" type="car" speed="22.20" pos="0.79" lane="721126897#3_0" slope="0.00"/>
        <vehicle id="1" x="2636.91" y="1899.24" angle="343.55" type="DEFAULT_BIKETYPE" speed="5.96" pos="174.29" lane="100954163#8_0" slope="0.00"/>
        <vehicle id="2" x="4487.02" y="-25.01" angle="45.01" type="motorbike" speed="16.49" pos="31.01" lane="721131937#2_2" slope="0.00"/>
        <vehicle id="3" x="3780.75" y="3955.79" angle="73.37" type="car" speed="11.48" pos="41.81" lane="721131967_0" slope="0.00"/>
    </timestep>
    <timestep time="2.00">
        <vehicle id="0" x="4730.27" y="-2420.92" angle="300.55" type="car" speed="22.21" pos="3.01" lane="721126897#3_0" slope="0.00"/>
        <vehicle id="1" x="2636.73" y="1899.81" angle="343.12" type="DEFAULT_BIKETYPE" speed="5.96" pos="174.89" lane="100954163#8_0" slope="0.00"/>
        <vehicle id="2" x="4488.19" y="-23.85" angle="45.01" type="motorbike" speed="16.61" pos="32.67" lane="721131937#2_2" slope="0.00"/>
        <vehicle id="3" x="3781.85" y="3956.12" angle="73.37" type="car" speed="11.50" pos="42.96" lane="721131967_0" slope="0.00"/>
    </timestep>
    <timestep time="2.10">
        <vehicle id="0" x="4728.37" y="-2419.80" angle="300.51" type="car" speed="22.16" pos="5.22" lane="721126897#3_0" slope="0.00"/>
        <vehicle id="1" x="2636.54" y="1900.38" angle="342.49" type="DEFAULT_BIKETYPE" speed="5.98" pos="175.49" lane="100954163#8_0" slope="0.00"/>
        <vehicle id="2" x="4489.36" y="-22.68" angle="45.01" type="motorbike" speed="16.55" pos="34.32" lane="721131937#2_2" slope="0.00"/>
        <vehicle id="3" x="3782.95" y="3956.45" angle="73.37" type="car" speed="11.46" pos="44.10" lane="721131967_0" slope="0.00"/>
    </timestep>
    <timestep time="2.20">
        <vehicle id="0" x="4726.47" y="-2418.68" angle="300.51" type="car" speed="22.22" pos="7.45" lane="721126897#3_0" slope="0.00"/>
        <vehicle id="1" x="2636.34" y="1900.95" angle="342.11" type="DEFAULT_BIKETYPE" speed="5.96" pos="176.08" lane="100954163#8_0" slope="0.00"/>
        <vehicle id="2" x="4490.53" y="-21.51" angle="45.01" type="motorbike" speed="16.63" pos="35.99" lane="721131937#2_2" slope="0.00"/>
        <vehicle id="3" x="3784.02" y="3956.85" angle="72.40" type="car" speed="11.48" pos="45.25" lane="721131967_0" slope="0.00"/>
    </timestep>
    <timestep time="2.30">
        <vehicle id="0" x="4724.56" y="-2417.56" angle="300.51" type="car" speed="22.19" pos="9.67" lane="721126897#3_0" slope="0.00"/>
        <vehicle id="1" x="2636.14" y="1901.52" angle="341.50" type="DEFAULT_BIKETYPE" speed="5.98" pos="176.68" lane="100954163#8_0" slope="0.00"/>
        <vehicle id="2" x="4491.65" y="-20.30" angle="43.38" type="motorbike" speed="16.54" pos="37.64" lane="721131937#2_2" slope="0.00"/>
        <vehicle id="3" x="3785.08" y="3957.28" angle="70.91" type="car" speed="11.50" pos="46.40" lane="721131967_0" slope="0.00"/>
    </timestep>
    <timestep time="2.40">
        <vehicle id="0" x="4722.66" y="-2416.43" angle="300.51" type="car" speed="22.21" pos="11.89" lane="721126897#3_0" slope="0.00"/>
        <vehicle id="1" x="2635.93" y="1902.08" angle="340.76" type="DEFAULT_BIKETYPE" speed="5.99" pos="177.28" lane="100954163#8_0" slope="0.00"/>
        <vehicle id="2" x="4492.73" y="-19.06" angle="41.01" type="motorbike" speed="16.60" pos="39.30" lane="721131937#2_2" slope="0.00"/>
        <vehicle id="3" x="3786.15" y="3957.72" angle="69.42" type="car" speed="11.51" pos="47.55" lane="721131967_0" slope="0.00"/>
        <vehicle id="4" x="2797.43" y="2216.16" angle="23.93" type="DEFAULT_BIKETYPE" speed="5.63" pos="314.07" lane="1307054560#0_0" slope="0.00"/>
    </timestep>
    <timestep time="2.50">
        <vehicle id="0" x="4720.76" y="-2415.31" angle="300.51" type="car" speed="22.19" pos="14.11" lane="721126897#3_0" slope="0.00"/>
        <vehicle id="1" x="2635.72" y="1902.64" angle="339.95" type="DEFAULT_BIKETYPE" speed="5.97" pos="177.88" lane="100954163#8_0" slope="0.00"/>
        <vehicle id="2" x="4493.82" y="-17.80" angle="41.01" type="motorbike" speed="16.67" pos="40.97" lane="721131937#2_2" slope="0.00"/>
        <vehicle id="3" x="3787.20" y="3958.16" angle="67.93" type="car" speed="11.45" pos="48.69" lane="721131967_0" slope="0.00"/>
        <vehicle id="4" x="2797.67" y="2216.66" angle="24.29" type="DEFAULT_BIKETYPE" speed="5.62" pos="314.63" lane="1307054560#0_0" slope="0.00"/>
    </timestep>
    <timestep time="2.60">
        <vehicle id="0" x="4718.86" y="-2414.19" angle="300.51" type="car" speed="22.15" pos="16.32" lane="721126897#3_0" slope="0.00"/>
        <vehicle id="1" x="2635.49" y="1903.19" angle="339.08" type="DEFAULT_BIKETYPE" speed="6.01" pos="178.48" lane="100954163#8_0" slope="0.00"/>
        <vehicle id="2" x="4494.90" y="-16.57" angle="41.01" type="motorbike" speed="16.48" pos="42.61" lane="721131937#2_2" slope="0.00"/>
        <vehicle id="3" x="3788.27" y="3958.60" angle="67.54" type="car" speed="11.50" pos="49.85" lane="721131967_0" slope="0.00"/>
        <vehicle id="4" x="2797.92" y="2217.17" angle="24.88" type="DEFAULT_BIKETYPE" speed="5.62" pos="315.19" lane="1307054560#0_0" slope="0.00"/>
    </timestep>
    <timestep time="2.70">
        <vehicle id="0" x="4716.95" y="-2413.07" angle="300.51" type="car" speed="22.22" pos="18.54" lane="721126897#3_0" slope="0.00"/>
        <vehicle id="1" x="2635.25" y="1903.75" angle="338.18" type="DEFAULT_BIKETYPE" speed="5.99" pos="179.08" lane="100954163#8_0" slope="0.00"/>
        <vehicle id="2" x="4495.98" y="-15.32" angle="41.01" type="motorbike" speed="16.54" pos="44.27" lane="721131937#2_2" slope="0.00"/>
        <vehicle id="3" x="3789.33" y="3959.04" angle="67.54" type="car" speed="11.46" pos="50.99" lane="721131967_0" slope="0.00"/>
        <vehicle id="4" x="2798.17" y="2217.67" angle="25.62" type="DEFAULT_BIKETYPE" speed="5.59" pos="315.75" lane="1307054560#0_0" slope="0.00"/>
    </timestep>
    <timestep time="2.80">
        <vehicle id="0" x="4715.05" y="-2411.95" angle="300.51" type="car" speed="22.19" pos="20.76" lane="721126897#3_0" slope="0.00"/>
        <vehicle id="1" x="2635.00" y="1904.29" angle="337.26" type="DEFAULT_BIKETYPE" speed="5.98" pos="179.67" lane="100954163#8_0" slope="0.00"/>
        <vehicle id="2" x="4497.06" y="-14.08" angle="41.01" type="motorbike" speed="16.48" pos="45.92" lane="721131937#2_2" slope="0.00"/>
        <vehicle id="3" x="3790.39" y="3959.48" angle="67.54" type="car" speed="11.50" pos="52.14" lane="721131967_0" slope="0.00"/>
        <vehicle id="4" x="2798.44" y="2218.16" angle="26.46" type="DEFAULT_BIKETYPE" speed="5.59" pos="316.31" lane="1307054560#0_0" slope="0.00"/>
    </timestep>
    <timestep time="2.90">
        <vehicle id="0" x="4713.14" y="-2410.83" angle="300.51" type="car" speed="22.22" pos="22.98" lane="721126897#3_0" slope="0.00"/>
        <vehicle id="1" x="2634.75" y="1904.83" angle="336.34" type="DEFAULT_BIKETYPE" speed="5.96" pos="180.27" lane="100954163#8_0" slope="0.00"/>
        <vehicle id="2" x="4498.14" y="-12.84" angle="41.01" type="motorbike" speed="16.52" pos="47.57" lane="721131937#2_2" slope="0.00"/>
        <vehicle id="3" x="3791.45" y="3959.92" angle="67.54" type="car" speed="11.48" pos="53.29" lane="721131967_0" slope="0.00"/>
        <vehicle id="4" x="2798.71" y="2218.65" angle="27.37" type="DEFAULT_BIKETYPE" speed="5.59" pos="316.87" lane="1307054560#0_0" slope="0.00"/>
    </timestep>
    <timestep time="3.00">
        <vehicle id="0" x="4711.25" y="-2409.71" angle="300.51" type="car" speed="22.13" pos="25.20" lane="721126897#3_0" slope="0.00"/>
        <vehicle id="1" x="2634.50" y="1905.37" angle="335.91" type="DEFAULT_BIKETYPE" speed="6.01" pos="180.87" lane="100954163#8_0" slope="0.00"/>
        <vehicle id="2" x="4499.21" y="-11.60" angle="41.01" type="motorbike" speed="16.52" pos="49.22" lane="721131937#2_2" slope="0.00"/>
        <vehicle id="3" x="3792.51" y="3960.36" angle="67.54" type="car" speed="11.49" pos="54.44" lane="721131967_0" slope="0.00"/>
        <vehicle id="4" x="2798.99" y="2219.14" angle="28.30" type="DEFAULT_BIKETYPE" speed="5.61" pos="317.43" lane="1307054560#0_0" slope="0.00"/>
        <vehicle id="5" x="2145.84" y="2065.12" angle="349.69" type="car" speed="22.22" pos="6.92" lane="-723990057#2_0" slope="0.00"/>
    </timestep>
    <timestep time="3.10">
        <vehicle id="0" x="4709.35" y="-2408.59" angle="300.51" type="car" speed="22.14" pos="27.41" lane="721126897#3_0" slope="0.00"/>
        <vehicle id="1" x="2634.24" y="1905.91" angle="335.48" type="DEFAULT_BIKETYPE" speed="5.97" pos="181.47" lane="100954163#8_0" slope="0.00"/>
        <vehicle id="2" x="4500.29" y="-10.36" angle="41.01" type="motorbike" speed="16.50" pos="50.87" lane="721131937#2_2" slope="0.00"/>
        <vehicle id="3" x="3793.57" y="3960.79" angle="67.54" type="car" speed="11.45" pos="55.58" lane="721131967_0" slope="0.00"/>
        <vehicle id="4" x="2799.28" y="2219.62" angle="29.28" type="DEFAULT_BIKETYPE" speed="5.58" pos="317.99" lane="1307054560#0_0" slope="0.00"/>
        <vehicle id="5" x="2145.44" y="2067.30" angle="349.69" type="car" speed="22.15" pos="9.14" lane="-723990057#2_0" slope="0.00"/>
    </timestep>
    <timestep time="3.20">
        <vehicle id="0" x="4707.45" y="-2407.47" angle="300.51" type="car" speed="22.15" pos="29.63" lane="721126897#3_0" slope="0.00"/>
        <vehicle id="1" x="2633.99" y="1906.46" angle="335.21" type="DEFAULT_BIKETYPE" speed="6.01" pos="182.07" lane="100954163#8_0" slope="0.00"/>
        <vehicle id="2" x="4501.38" y="-9.12" angle="41.01" type="motorbike" speed="16.59" pos="52.53" lane="721131937#2_2" slope="0.00"/>
        <vehicle id="3" x="3794.63" y="3961.23" angle="67.54" type="car" speed="11.49" pos="56.73" lane="721131967_0" slope="0.00"/>
        <vehicle id="4" x="2799.58" y="2220.10" angle="30.26" type="DEFAULT_BIKETYPE" speed="5.61" pos="318.55" lane="1307054560#0_0" slope="0.00"/>
        <vehicle id="5" x="2145.05" y="2069.48" angle="349.69" type="car" speed="22.14" pos="11.35" lane="-723990057#2_0" slope="0.00"/>
    </timestep>
    <timestep time="3.30">
        <vehicle id="0" x="4705.55" y="-2406.35" angle="300.51" type="car" speed="22.16" pos="31.84" lane="721126897#3_0" slope="0.00"/>
        <vehicle id="1" x="2633.73" y="1907.00" angle="335.05" type="DEFAULT_BIKETYPE" speed="5.99" pos="182.67" lane="100954163#8_0" slope="0.00"/>
        <vehicle id="2" x="4502.46" y="-7.86" angle="40.69" type="motorbike" speed="16.65" pos="54.19" lane="721131937#2_2" slope="0.00"/>
        <vehicle id="3" x="3795.69" y="3961.67" angle="67.54" type="car" speed="11.47" pos="57.88" lane="721131967_0" slope="0.00"/>
        <vehicle id="4" x="2799.89" y="2220.58" angle="31.26" type="DEFAULT_BIKETYPE" speed="5.58" pos="319.11" lane="1307054560#0_0" slope="0.00"/>
        <vehicle id="5" x="2144.65" y="2071.67" angle="349.69" type="car" speed="22.22" pos="13.58" lane="-723990057#2_0" slope="0.00"/>
    </timestep>
    <timestep time="3.40">
        <vehicle id="0" x="4703.65" y="-2405.23" angle="300.51" type="car" speed="22.14" pos="34.06" lane="721126897#3_0" slope="0.00"/>
        <vehicle id="1" x="2633.47" y="1907.54" angle="334.94" type="DEFAULT_BIKETYPE" speed="6.01" pos="183.27" lane="100954163#8_0" slope="0.00"/>
        <vehicle id="2" x="4503.53" y="-6.60" angle="40.52" type="motorbike" speed="16.62" pos="55.86" lane="721131937#2_2" slope="0.00"/>
        <vehicle id="3" x="3796.75" y="3962.11" angle="67.54" type="car" speed="11.41" pos="59.02" lane="721131967_0" slope="0.00"/>
        <vehicle id="4" x="2800.21" y="2221.05" angle="32.25" type="DEFAULT_BIKETYPE" speed="5.61" pos="319.67" lane="1307054560#0_0" slope="0.00"/>
        <vehicle id="5" x="2144.25" y="2073.85" angle="349.69" type="car" speed="22.20" pos="15.80" lane="-723990057#2_0" slope="0.00"/>
    </timestep>
    <timestep time="3.50">
        <vehicle id="0" x="4701.74" y="-2404.11" angle="300.51" type="car" speed="22.22" pos="36.28" lane="721126897#3_0" slope="0.00"/>
        <vehicle id="1" x="2633.22" y="1908.09" angle="334.88" type="DEFAULT_BIKETYPE" speed="6.00" pos="183.87" lane="100954163#8_0" slope="0.00"/>
        <vehicle id="2" x="4504.60" y="-5.35" angle="40.52" type="motorbike" speed="16.53" pos="57.51" lane="721131937#2_2" slope="0.00"/>
        <vehicle id="3" x="3797.81" y="3962.55" angle="67.54" type="car" speed="11.51" pos="60.17" lane="721131967_0" slope="0.00"/>
        <vehicle id="4" x="2800.53" y="2221.52" angle="32.88" type="DEFAULT_BIKETYPE" speed="5.62" pos="320.23" lane="1307054560#0_0" slope="0.00"/>
        <vehicle id="5" x="2143.85" y="2076.03" angle="349.69" type="car" speed="22.20" pos="18.02" lane="-723990057#2_0" slope="0.00"/>
    </timestep>
    <timestep time="3.60">
        <vehicle id="0" x="4699.84" y="-2402.99" angle="300.51" type="car" speed="22.19" pos="38.50" lane="721126897#3_0" slope="0.00"/>
        <vehicle id="1" x="2632.96" y="1908.63" angle="334.84" type="DEFAULT_BIKETYPE" speed="5.97" pos="184.47" lane="100954163#8_0" slope="0.00"/>
        <vehicle id="2" x="4505.67" y="-4.09" angle="40.52" type="motorbike" speed="16.60" pos="59.17" lane="721131937#2_2" slope="0.00"/>
        <vehicle id="3" x="3798.88" y="3962.99" angle="67.54" type="car" speed="11.50" pos="61.32" lane="721131967_0" slope="0.00"/>
        <vehicle id="4" x="2800.85" y="2221.99" angle="33.30" type="DEFAULT_BIKETYPE" speed="5.59" pos="320.79" lane="1307054560#0_0" slope="0.00"/>
        <vehicle id="5" x="2143.46" y="2078.22" angle="349.69" type="car" speed="22.21" pos="20.24" lane="-723990057#2_0" slope="0.00"/>
        <vehicle id="6" x="4223.97" y="-565.43" angle="283.78" type="motorbike" speed="1.29" pos="0.74" lane="-1149578009_0" slope="0.00"/>
    </timestep>
    <timestep time="3.70">
        <vehicle id="0" x="4697.94" y="-2401.87" angle="300.51" type="car" speed="22.17" pos="40.71" lane="721126897#3_0" slope="0.00"/>
        <vehicle id="1" x="2632.71" y="1909.17" angle="334.81" type="DEFAULT_BIKETYPE" speed="6.00" pos="185.07" lane="100954163#8_0" slope="0.00"/>
        <vehicle id="2" x="4506.74" y="-2.84" angle="40.52" type="motorbike" speed="16.51" pos="60.82" lane="721131937#2_2" slope="0.00"/>
        <vehicle id="3" x="3799.93" y="3963.42" angle="67.54" type="car" speed="11.42" pos="62.47" lane="721131967_0" slope="0.00"/>
        <vehicle id="4" x="2801.16" y="2222.46" angle="33.58" type="DEFAULT_BIKETYPE" speed="5.58" pos="321.35" lane="1307054560#0_0" slope="0.00"/>
        <vehicle id="5" x="2143.06" y="2080.40" angle="349.69" type="car" speed="22.18" pos="22.45" lane="-723990057#2_0" slope="0.00"/>
        <vehicle id="6" x="4223.82" y="-565.44" angle="282.09" type="motorbike" speed="1.54" pos="0.89" lane="-1149578009_0" slope="0.00"/>
    </timestep>
    <timestep time="3.80">
        <vehicle id="0" x="4696.04" y="-2400.75" angle="300.51" type="car" speed="22.20" pos="42.93" lane="721126897#3_0" slope="0.00"/>
        <vehicle id="1" x="2632.46" y="1909.71" angle="334.80" type="DEFAULT_BIKETYPE" speed="5.96" pos="185.66" lane="100954163#8_0" slope="0.00"/>
        <vehicle id="2" x="4507.81" y="-1.59" angle="40.52" type="motorbike" speed="16.57" pos="62.48" lane="721131937#2_2" slope="0.00"/>
        <vehicle id="3" x="3800.99" y="3963.86" angle="67.54" type="car" speed="11.43" pos="63.61" lane="721131967_0" slope="0.00"/>
        <vehicle id="4" x="2801.48" y="2222.93" angle="33.76" type="DEFAULT_BIKETYPE" speed="5.58" pos="321.90" lane="1307054560#0_0" slope="0.00"/>
        <vehicle id="5" x="2142.66" y="2082.58" angle="349.69" type="car" speed="22.17" pos="24.67" lane="-723990057#2_0" slope="0.00"/>
        <vehicle id="6" x="4223.68" y="-565.50" angle="279.08" type="motorbike" speed="1.79" pos="0.08" lane=":10694340229_2_0" slope="0.00"/>
    </timestep>
    <timestep time="3.90">
        <vehicle id="0" x="4694.13" y="-2399.63" angle="300.51" type="car" speed="22.20" pos="45.15" lane="721126897#3_0" slope="0.00"/>
        <vehicle id="1" x="2632.20" y="1910.25" angle="334.79" type="DEFAULT_BIKETYPE" speed="6.01" pos="186.26" lane="100954163#8_0" slope="0.00"/>
        <vehicle id="2" x="4508.89" y="-0.33" angle="40.52" type="motorbike" speed="16.63" pos="64.14" lane="721131937#2_2" slope="0.00"/>
        <vehicle id="3" x="3802.04" y="3964.30" angle="67.54" type="car" speed="11.44" pos="64.75" lane="721131967_0" slope="0.00"/>
        <vehicle id="4" x="2801.80" y="2223.41" angle="33.85" type="DEFAULT_BIKETYPE" speed="5.62" pos="322.47" lane="1307054560#0_0" slope="0.00"/>
        <vehicle id="5" x="2142.27" y="2084.76" angle="349.69" type="car" speed="22.18" pos="26.89" lane="-723990057#2_0" slope="0.00"/>
        <vehicle id="6" x="4223.54" y="-565.66" angle="273.50" type="motorbike" speed="2.02" pos="0.28" lane=":10694340229_2_0" slope="0.00"/>
    </timestep>
    <timestep time="4.00">
        <vehicle id="0" x="4692.23" y="-2398.51" angle="300.51" type="car" speed="22.16" pos="47.37" lane="721126897#3_0" slope="0.00"/>
        <vehicle id="1" x="2631.94" y="1910.79" angle="334.78" type="DEFAULT_BIKETYPE" speed="5.98" pos="186.86" lane="100954163#8_0" slope="0.00"/>
        <vehicle id="2" x="4509.96" y="0.93" angle="40.41" type="motorbike" speed="16.66" pos="65.81" lane="721131937#2_2" slope="0.00"/>
        <vehicle id="3" x="3803.11" y="3964.74" angle="67.54" type="car" speed="11.51" pos="65.90" lane="721131967_0" slope="0.00"/>
        <vehicle id="4" x="2802.12" y="2223.88" angle="33.93" type="DEFAULT_BIKETYPE" speed="5.59" pos="323.03" lane="1307054560#0_0" slope="0.00"/>
        <vehicle id="5" x="2141.87" y="2086.94" angle="349.69" type="car" speed="22.16" pos="29.10" lane="-723990057#2_0" slope="0.00"/>
        <vehicle id="6" x="4223.40" y="-565.83" angle="267.06" type="motorbike" speed="2.09" pos="0.49" lane=":10694340229_2_0" slope="0.00"/>
    </timestep>
    <timestep time="4.10">
        <vehicle id="0" x="4690.31" y="-2397.42" angle="300.03" type="car" speed="22.18" pos="49.59" lane="721126897#3_0" slope="0.00"/>
        <vehicle id="1" x="2631.69" y="1911.34" angle="334.78" type="DEFAULT_BIKETYPE" speed="6.01" pos="187.46" lane="100954163#8_0" slope="0.00"/>
        <vehicle id="2" x="4511.02" y="2.19" angle="40.09" type="motorbike" speed="16.48" pos="67.45" lane="721131937#2_2" slope="0.00"/>
        <vehicle id="3" x="3804.16" y="3965.17" angle="67.54" type="car" speed="11.37" pos="67.04" lane="721131967_0" slope="0.00"/>
        <vehicle id="4" x="2802.44" y="2224.35" angle="33.96" type="DEFAULT_BIKETYPE" speed="5.63" pos="323.59" lane="1307054560#0_0" slope="0.00"/>
        <vehicle id="5" x="2141.47" y="2089.12" angle="349.69" type="car" speed="22.17" pos="31.32" lane="-723990057#2_0" slope="0.00"/>
        <vehicle id="6" x="4223.25" y="-566.03" angle="259.55" type="motorbike" speed="2.22" pos="0.71" lane=":10694340229_2_0" slope="0.00"/>
    </timestep>
    <timestep time="4.20">
        <vehicle id="0" x="4688.34" y="-2396.43" angle="298.16" type="car" speed="22.17" pos="51.80" lane="721126897#3_0" slope="0.00"/>
        <vehicle id="1" x="2631.43" y="1911.88" angle="334.77" type="DEFAULT_BIKETYPE" speed="5.97" pos="188.06" lane="100954163#8_0" slope="0.00"/>
        <vehicle id="2" x="4512.09" y="3.46" angle="40.09" type="motorbike" speed="16.65" pos="69.12" lane="721131937#2_2" slope="0.00"/>
        <vehicle id="3" x="3805.17" y="3965.59" angle="67.54" type="car" speed="10.97" pos="68.14" lane="721131967_0" slope="0.00"/>
        <vehicle id="4" x="2802.76" y="2224.82" angle="34.00" type="DEFAULT_BIKETYPE" speed="5.59" pos="324.15" lane="1307054560#0_0" slope="0.00"/>
        <vehicle id="5" x="2141.08" y="2091.30" angle="349.69" type="car" speed="22.16" pos="33.54" lane="-723990057#2_0" slope="0.00"/>
        <vehicle id="6" x="4223.10" y="-566.24" angle="251.28" type="motorbike" speed="2.40" pos="0.95" lane=":10694340229_2_0" slope="0.00"/>
        <vehicle id="7" x="4637.33" y="-2374.79" angle="295.15" type="bus" speed="16.67" pos="106.65" lane="721126897#3_1" slope="0.00"/>
    </timestep>
    <timestep time="4.30">
        <vehicle id="0" x="4686.37" y="-2395.44" angle="296.70" type="car" speed="22.22" pos="54.03" lane="721126897#3_0" slope="0.00"/>
        <vehicle id="1" x="2631.18" y="1912.42" angle="334.77" type="DEFAULT_BIKETYPE" speed="6.01" pos="188.66" lane="100954163#8_0" slope="0.00"/>
        <vehicle id="2" x="4513.15" y="4.72" angle="40.09" type="motorbike" speed="16.61" pos="70.78" lane="721131937#2_2" slope="0.00"/>
        <vehicle id="3" x="3806.15" y="3965.99" angle="67.54" type="car" speed="10.57" pos="69.19" lane="721131967_0" slope="0.00"/>
        <vehicle id="4" x="2803.07" y="2225.29" angle="34.03" type="DEFAULT_BIKETYPE" speed="5.58" pos="324.71" lane="1307054560#0_0" slope="0.00"/>
        <vehicle id="5" x="2140.68" y="2093.49" angle="349.69" type="car" speed="22.20" pos="35.76" lane="-723990057#2_0" slope="0.00"/>
        <vehicle id="6" x="4222.93" y="-566.45" angle="242.52" type="motorbike" speed="2.48" pos="1.20" lane=":10694340229_2_0" slope="0.00"/>
        <vehicle id="7" x="4635.82" y="-2374.08" angle="295.15" type="bus" speed="16.63" pos="108.31" lane="721126897#3_1" slope="0.00"/>
    </timestep>
    <timestep time="4.40">
        <vehicle id="0" x="4684.40" y="-2394.45" angle="296.70" type="car" speed="22.15" pos="56.24" lane="721126897#3_0" slope="0.00"/>
        <vehicle id="1" x="2630.92" y="1912.96" angle="334.77" type="DEFAULT_BIKETYPE" speed="5.98" pos="189.26" lane="100954163#8_0" slope="0.00"/>
        <vehicle id="2" x="4514.22" y="5.99" angle="40.09" type="motorbike" speed="16.66" pos="72.44" lane="721131937#2_2" slope="0.00"/>
        <vehicle id="3" x="3807.09" y="3966.38" angle="67.54" type="car" speed="10.17" pos="70.21" lane="721131967_0" slope="0.00"/>