<?xml version="1.0" encoding="UTF-8"?>

<!-- generated on 2025-08-21 10:17:33 by Eclipse SUMO sumo Version 1.22.0
<sumoConfiguration xmlns:xsi="http://www.w3.org/2001/XMLSchema-instance" xsi:noNamespaceSchemaLocation="http://sumo.dlr.de/xsd/sumoConfiguration.xsd">

    <input>
        <net-file value="phuquoc.net.xml"/>
        <route-files value="phuquoc.rou.xml, phuquoc-demo.rou.xml"/>
        <additional-files value="e2.add.xml"/>
    </input>

    <output>
        <tripinfo-output value="tripinfo.xml"/>
    </output>

    <time>
        <end value="150"/>
        <step-length value="0.1"/>
    </time>

    <processing>
        <lateral-resolution value="0.5"/>
        <ignore-route-errors value="true"/>
        <time-to-teleport value="60"/>
        <tls.actuated.jam-threshold value="30"/>
    </processing>

    <routing>
        <device.rerouting.adaptation-steps value="18"/>
        <device.rerouting.adaptation-interval value="10"/>
    </routing>

    <report>
        <verbose value="false"/>
        <duration-log.statistics value="true"/>
        <no-step-log value="true"/>
    </report>

    <gui_only>
        <gui-settings-file value="phuquoc.view.xml"/>
    </gui_only>

</sumoConfiguration>
-->

<tripinfos xmlns:xsi="http://www.w3.org/2001/XMLSchema-instance" xsi:noNamespaceSchemaLocation="http://sumo.dlr.de/xsd/tripinfo_file.xsd">
    <tripinfo id="13" depart="5.20" departLane="-155315695#4_0" departPos="23.08" departPosLat="0.00" departSpeed="12.64" departDelay="0.00" arrival="27.90" arrivalLane="-155315695#3_0" arrivalPos="244.45" arrivalPosLat="0.00" arrivalSpeed="12.62" duration="22.70" routeLength="286.53" waitingTime="0.00" waitingCount="0" stopTime="0.00" timeLoss="0.03" rerouteNo="0" devices="tripinfo_13 routing_13" vType="truck" speedFactor="0.91" vaporized=""/>
    <tripinfo id="26" depart="10.40" departLane="100954129#1_0" departPos="47.08" departPosLat="0.00" departSpeed="5.83" departDelay="0.00" arrival="52.40" arrivalLane="723990057#4_0" arrivalPos="37.18" arrivalPosLat="0.00" arrivalSpeed="9.71" duration="42.00" routeLength="377.36" waitingTime="0.00" waitingCount="0" stopTime="0.00" timeLoss="5.56" rerouteNo="1" devices="tripinfo_26 routing_26" vType="truck" speedFactor="0.73" vaporized=""/>
    <tripinfo id="167" depart="66.80" departLane="721131963#0_0" departPos="37.39" departPosLat="0.00" departSpeed="16.67" departDelay="0.00" arrival="68.30" arrivalLane="721131963#0_0" arrivalPos="61.82" arrivalPosLat="0.00" arrivalSpeed="16.66" duration="1.50" routeLength="24.43" waitingTime="0.00" waitingCount="0" stopTime="0.00" timeLoss="0.00" rerouteNo="1" devices="tripinfo_167 routing_167" vType="bus" speedFactor="0.99" vaporized=""/>
    <tripinfo id="22" depart="8.80" departLane="-155315693#8_0" departPos="125.89" departPosLat="0.00" departSpeed="12.16" departDelay="0.00" arrival="72.40" arrivalLane="-766326315_0" arrivalPos="269.64" arrivalPosLat="0.00" arrivalSpeed="11.97" duration="63.60" routeLength="686.27" waitingTime="0.00" waitingCount="0" stopTime="0.00" timeLoss="4.10" rerouteNo="1" devices="tripinfo_22 routing_22" vType="motorbike" speedFactor="0.88" vaporized=""/>
    <tripinfo id="205" depart="82.10" departLane="721131946#9_2" departPos="86.01" departPosLat="0.00" departSpeed="16.67" departDelay="0.10" arrival="87.10" arrivalLane="721131939_0" arrivalPos="1.72" arrivalPosLat="0.00" arrivalSpeed="6.49" duration="5.00" routeLength="52.03" waitingTime="0.00" waitingCount="0" stopTime="0.00" timeLoss="1.14" rerouteNo="0" devices="tripinfo_205 routing_205" vType="bus" speedFactor="1.02" vaporized=""/>
    <tripinfo id="144" depart="57.60" departLane="152227686#1_0" departPos="11.46" departPosLat="0.00" departSpeed="8.00" departDelay="0.00" arrival="88.00" arrivalLane="1056899464#1_0" arrivalPos="90.34" arrivalPosLat="0.00" arrivalSpeed="13.48" duration="30.40" routeLength="301.05" waitingTime="0.00" waitingCount="0" stopTime="0.00" timeLoss="6.01" rerouteNo="1" devices="tripinfo_144 routing_144" vType="car" speedFactor="0.97" vaporized=""/>
    <tripinfo id="24" depart="9.60" departLane="721126897#15_2" departPos="20.24" departPosLat="0.00" departSpeed="16.67" departDelay="0.00" arrival="88.30" arrivalLane="1149579537#1_1" arrivalPos="251.04" arrivalPosLat="0.00" arrivalSpeed="16.59" duration="78.70" routeLength="1185.82" waitingTime="0.00" waitingCount="0" stopTime="0.00" timeLoss="5.84" rerouteNo="1" devices="tripinfo_24 routing_24" vType="motorbike" speedFactor="0.98" vaporized=""/>
    <tripinfo id="83" depart="33.20" departLane="-827332718_0" departPos="0.17" departPosLat="0.00" departSpeed="2.54" departDelay="0.00" arrival="90.00" arrivalLane="721131934#1_0" arrivalPos="177.26" arrivalPosLat="-0.00" arrivalSpeed="22.19" duration="56.80" routeLength="965.07" waitingTime="0.60" waitingCount="1" stopTime="0.00" timeLoss="10.98" rerouteNo="1" devices="tripinfo_83 routing_83" vType="car" speedFactor="0.91" vaporized=""/>
    <tripinfo id="67" depart="26.80" departLane="-155315695#0_0" departPos="90.65" departPosLat="0.00" departSpeed="9.95" departDelay="0.00" arrival="90.50" arrivalLane="155315688#1_0" arrivalPos="92.47" arrivalPosLat="0.00" arrivalSpeed="12.97" duration="63.70" routeLength="824.33" waitingTime="0.00" waitingCount="0" stopTime="0.00" timeLoss="10.96" rerouteNo="1" devices="tripinfo_67 routing_67" vType="car" speedFactor="0.94" vaporized=""/>
    <tripinfo id="118" depart="47.20" departLane="721131966#0_0" departPos="9.45" departPosLat="0.00" departSpeed="1.37" departDelay="0.00" arrival="107.70" arrivalLane="-850817946_0" arrivalPos="0.20" arrivalPosLat="0.00" arrivalSpeed="16.59" duration="60.50" routeLength="0.48" waitingTime="60.10" waitingCount="1" stopTime="0.00" timeLoss="60.38" rerouteNo="0" devices="tripinfo_118 routing_118" vType="motorbike" speedFactor="0.84" vaporized=""/>
    <tripinfo id="129" depart="51.60" departLane="100954129#0_0" departPos="42.87" departPosLat="0.00" departSpeed="12.68" departDelay="0.00" arrival="113.50" arrivalLane="723990057#3_0" arrivalPos="51.93" arrivalPosLat="-0.00" arrivalSpeed="13.57" duration="61.90" routeLength="482.13" waitingTime="12.60" waitingCount="1" stopTime="0.00" timeLoss="24.79" rerouteNo="1" devices="tripinfo_129 routing_129" vType="car" speedFactor="0.91" vaporized=""/>
    <tripinfo id="15" depart="6.00" departLane="721131946#6_2" departPos="92.54" departPosLat="0.00" departSpeed="19.44" departDelay="0.00" arrival="121.60" arrivalLane="721131937#5_1" arrivalPos="131.97" arrivalPosLat="0.00" arrivalSpeed="15.95" duration="115.60" routeLength="814.49" waitingTime="60.10" waitingCount="1" stopTime="0.00" timeLoss="71.56" rerouteNo="1" devices="tripinfo_15 routing_15" vType="truck" speedFactor="0.79" vaporized=""/>
    <tripinfo id="106" depart="42.40" departLane="152227691#4_1" departPos="70.38" departPosLat="0.00" departSpeed="5.22" departDelay="0.00" arrival="123.60" arrivalLane="152227691#1_0" arrivalPos="77.73" arrivalPosLat="-1.42" arrivalSpeed="5.18" duration="81.20" routeLength="407.28" waitingTime="0.00" waitingCount="0" stopTime="0.00" timeLoss="3.19" rerouteNo="1" devices="tripinfo_106 routing_106" vType="DEFAULT_BIKETYPE" speedFactor="0.94" vaporized=""/>
    <tripinfo id="5" depart="2.00" departLane="-723990057#2_0" departPos="6.92" departPosLat="0.00" departSpeed="22.22" departDelay="0.00" arrival="128.40" arrivalLane="155315719#1_0" arrivalPos="159.17" arrivalPosLat="0.00" arrivalSpeed="22.13" duration="126.40" routeLength="2389.91" waitingTime="0.00" waitingCount="0" stopTime="0.00" timeLoss="16.05" rerouteNo="1" devices="tripinfo_5 routing_5" vType="car" speedFactor="1.14" vaporized=""/>
    <tripinfo id="245" depart="98.00" departLane="-723990057#3_0" departPos="22.58" departPosLat="0.00" departSpeed="6.60" departDelay="0.00" arrival="128.90" arrivalLane="-723990057#2_0" arrivalPos="158.77" arrivalPosLat="-2.92" arrivalSpeed="6.59" duration="30.90" routeLength="202.74" waitingTime="0.00" waitingCount="0" stopTime="0.00" timeLoss="0.14" rerouteNo="0" devices="tripinfo_245 routing_245" vType="DEFAULT_BIKETYPE" speedFactor="1.19" vaporized=""/>
    <tripinfo id="27" depart="10.80" departLane="721126897#3_2" departPos="170.89" departPosLat="0.00" departSpeed="16.67" departDelay="0.00" arrival="130.10" arrivalLane="721126897#12_1" arrivalPos="294.58" arrivalPosLat="-0.00" arrivalSpeed="16.63" duration="119.30" routeLength="1975.91" waitingTime="0.00" waitingCount="0" stopTime="0.00" timeLoss="0.71" rerouteNo="1" devices="tripinfo_27 routing_27" vType="motorbike" speedFactor="1.16" vaporized=""/>
    <tripinfo id="339" depart="135.60" departLane="-722466950_0" departPos="1.73" departPosLat="0.00" departSpeed="16.67" departDelay="0.00" arrival="135.80" arrivalLane="-722466950_0" arrivalPos="4.85" arrivalPosLat="0.00" arrivalSpeed="16.53" duration="0.20" routeLength="3.12" waitingTime="0.00" waitingCount="0" stopTime="0.00" timeLoss="0.00" rerouteNo="1" devices="tripinfo_339 routing_339" vType="motorbike" speedFactor="1.23" vaporized=""/>
    <tripinfo id="23" depart="9.20" departLane="-155315719#2_0" departPos="68.71" departPosLat="0.00" departSpeed="19.44" departDelay="0.00" arrival="141.80" arrivalLane="1056899464#1_0" arrivalPos="90.34" arrivalPosLat="0.00" arrivalSpeed="12.77" duration="132.60" routeLength="1741.55" waitingTime="0.00" waitingCount="0" stopTime="0.00" timeLoss="26.07" rerouteNo="1" devices="tripinfo_23 routing_23" vType="truck" speedFactor="0.92" vaporized=""/>
    <tripinfo id="247" depart="98.80" departLane="1149579534_0" departPos="0.07" departPosLat="0.00" departSpeed="0.96" departDelay="0.00" arrival="142.00" arrivalLane="721131934#4_1" arrivalPos="150.32" arrivalPosLat="0.12" arrivalSpeed="13.64" duration="43.20" routeLength="522.32" waitingTime="2.30" waitingCount="1" stopTime="0.00" timeLoss="9.80" rerouteNo="1" devices="tripinfo_247 routing_247" vType="motorbike" speedFactor="0.91" vaporized=""/>
</tripinfos>
