<?xml version="1.0" encoding="UTF-8"?>

<!-- generated on 2025-08-21 10:48:24 by Eclipse SUMO sumo Version 1.22.0
<sumoConfiguration xmlns:xsi="http://www.w3.org/2001/XMLSchema-instance" xsi:noNamespaceSchemaLocation="http://sumo.dlr.de/xsd/sumoConfiguration.xsd">

    <input>
        <net-file value="phuquoc.net.xml"/>
        <route-files value="phuquoc.rou.xml, phuquoc-demo.rou.xml"/>
        <additional-files value="e2.add.xml"/>
    </input>

    <output>
        <tripinfo-output value="tripinfo2.xml"/>
    </output>

    <time>
        <end value="200"/>
        <step-length value="0.1"/>
    </time>

    <processing>
        <lateral-resolution value="0.5"/>
        <ignore-route-errors value="true"/>
        <time-to-teleport value="60"/>
        <tls.actuated.jam-threshold value="30"/>
    </processing>

    <routing>
        <device.rerouting.adaptation-steps value="18"/>
        <device.rerouting.adaptation-interval value="10"/>
    </routing>

    <report>
        <verbose value="false"/>
        <duration-log.statistics value="true"/>
        <no-step-log value="true"/>
    </report>

    <gui_only>
        <gui-settings-file value="phuquoc.view.xml"/>
    </gui_only>

</sumoConfiguration>
-->

<tripinfos xmlns:xsi="http://www.w3.org/2001/XMLSchema-instance" xsi:noNamespaceSchemaLocation="http://sumo.dlr.de/xsd/tripinfo_file.xsd">
    <tripinfo id="13" depart="5.20" departLane="-155315695#4_0" departPos="23.08" departPosLat="0.00" departSpeed="12.64" departDelay="0.00" arrival="27.90" arrivalLane="-155315695#3_0" arrivalPos="244.45" arrivalPosLat="0.00" arrivalSpeed="12.62" duration="22.70" routeLength="286.53" waitingTime="0.00" waitingCount="0" stopTime="0.00" timeLoss="0.03" rerouteNo="0" devices="tripinfo_13 routing_13" vType="truck" speedFactor="0.91" vaporized=""/>
    <tripinfo id="26" depart="10.40" departLane="100954129#1_0" departPos="47.08" departPosLat="0.00" departSpeed="5.83" departDelay="0.00" arrival="52.40" arrivalLane="723990057#4_0" arrivalPos="37.18" arrivalPosLat="0.00" arrivalSpeed="9.71" duration="42.00" routeLength="377.36" waitingTime="0.00" waitingCount="0" stopTime="0.00" timeLoss="5.56" rerouteNo="1" devices="tripinfo_26 routing_26" vType="truck" speedFactor="0.73" vaporized=""/>
    <tripinfo id="167" depart="66.80" departLane="721131963#0_0" departPos="37.39" departPosLat="0.00" departSpeed="16.67" departDelay="0.00" arrival="68.30" arrivalLane="721131963#0_0" arrivalPos="61.82" arrivalPosLat="0.00" arrivalSpeed="16.66" duration="1.50" routeLength="24.43" waitingTime="0.00" waitingCount="0" stopTime="0.00" timeLoss="0.00" rerouteNo="1" devices="tripinfo_167 routing_167" vType="bus" speedFactor="0.99" vaporized=""/>
    <tripinfo id="22" depart="8.80" departLane="-155315693#8_0" departPos="125.89" departPosLat="0.00" departSpeed="12.16" departDelay="0.00" arrival="72.40" arrivalLane="-766326315_0" arrivalPos="269.64" arrivalPosLat="0.00" arrivalSpeed="11.97" duration="63.60" routeLength="686.27" waitingTime="0.00" waitingCount="0" stopTime="0.00" timeLoss="4.10" rerouteNo="1" devices="tripinfo_22 routing_22" vType="motorbike" speedFactor="0.88" vaporized=""/>
    <tripinfo id="205" depart="82.10" departLane="721131946#9_2" departPos="86.01" departPosLat="0.00" departSpeed="16.67" departDelay="0.10" arrival="87.10" arrivalLane="721131939_0" arrivalPos="1.72" arrivalPosLat="0.00" arrivalSpeed="6.49" duration="5.00" routeLength="52.03" waitingTime="0.00" waitingCount="0" stopTime="0.00" timeLoss="1.14" rerouteNo="0" devices="tripinfo_205 routing_205" vType="bus" speedFactor="1.02" vaporized=""/>
    <tripinfo id="144" depart="57.60" departLane="152227686#1_0" departPos="11.46" departPosLat="0.00" departSpeed="8.00" departDelay="0.00" arrival="88.00" arrivalLane="1056899464#1_0" arrivalPos="90.34" arrivalPosLat="0.00" arrivalSpeed="13.48" duration="30.40" routeLength="301.05" waitingTime="0.00" waitingCount="0" stopTime="0.00" timeLoss="6.01" rerouteNo="1" devices="tripinfo_144 routing_144" vType="car" speedFactor="0.97" vaporized=""/>
    <tripinfo id="24" depart="9.60" departLane="721126897#15_2" departPos="20.24" departPosLat="0.00" departSpeed="16.67" departDelay="0.00" arrival="88.30" arrivalLane="1149579537#1_1" arrivalPos="251.04" arrivalPosLat="0.00" arrivalSpeed="16.59" duration="78.70" routeLength="1185.82" waitingTime="0.00" waitingCount="0" stopTime="0.00" timeLoss="5.84" rerouteNo="1" devices="tripinfo_24 routing_24" vType="motorbike" speedFactor="0.98" vaporized=""/>
    <tripinfo id="83" depart="33.20" departLane="-827332718_0" departPos="0.17" departPosLat="0.00" departSpeed="2.54" departDelay="0.00" arrival="90.00" arrivalLane="721131934#1_0" arrivalPos="177.26" arrivalPosLat="-0.00" arrivalSpeed="22.19" duration="56.80" routeLength="965.07" waitingTime="0.60" waitingCount="1" stopTime="0.00" timeLoss="10.98" rerouteNo="1" devices="tripinfo_83 routing_83" vType="car" speedFactor="0.91" vaporized=""/>
    <tripinfo id="67" depart="26.80" departLane="-155315695#0_0" departPos="90.65" departPosLat="0.00" departSpeed="9.95" departDelay="0.00" arrival="90.50" arrivalLane="155315688#1_0" arrivalPos="92.47" arrivalPosLat="0.00" arrivalSpeed="12.97" duration="63.70" routeLength="824.33" waitingTime="0.00" waitingCount="0" stopTime="0.00" timeLoss="10.96" rerouteNo="1" devices="tripinfo_67 routing_67" vType="car" speedFactor="0.94" vaporized=""/>
    <tripinfo id="118" depart="47.20" departLane="721131966#0_0" departPos="9.45" departPosLat="0.00" departSpeed="1.37" departDelay="0.00" arrival="107.70" arrivalLane="-850817946_0" arrivalPos="0.20" arrivalPosLat="0.00" arrivalSpeed="16.59" duration="60.50" routeLength="0.48" waitingTime="60.10" waitingCount="1" stopTime="0.00" timeLoss="60.38" rerouteNo="0" devices="tripinfo_118 routing_118" vType="motorbike" speedFactor="0.84" vaporized=""/>
    <tripinfo id="129" depart="51.60" departLane="100954129#0_0" departPos="42.87" departPosLat="0.00" departSpeed="12.68" departDelay="0.00" arrival="113.50" arrivalLane="723990057#3_0" arrivalPos="51.93" arrivalPosLat="-0.00" arrivalSpeed="13.57" duration="61.90" routeLength="482.13" waitingTime="12.60" waitingCount="1" stopTime="0.00" timeLoss="24.79" rerouteNo="1" devices="tripinfo_129 routing_129" vType="car" speedFactor="0.91" vaporized=""/>
    <tripinfo id="15" depart="6.00" departLane="721131946#6_2" departPos="92.54" departPosLat="0.00" departSpeed="19.44" departDelay="0.00" arrival="121.60" arrivalLane="721131937#5_1" arrivalPos="131.97" arrivalPosLat="0.00" arrivalSpeed="15.95" duration="115.60" routeLength="814.49" waitingTime="60.10" waitingCount="1" stopTime="0.00" timeLoss="71.56" rerouteNo="1" devices="tripinfo_15 routing_15" vType="truck" speedFactor="0.79" vaporized=""/>
    <tripinfo id="106" depart="42.40" departLane="152227691#4_1" departPos="70.38" departPosLat="0.00" departSpeed="5.22" departDelay="0.00" arrival="123.60" arrivalLane="152227691#1_0" arrivalPos="77.73" arrivalPosLat="-1.42" arrivalSpeed="5.18" duration="81.20" routeLength="407.28" waitingTime="0.00" waitingCount="0" stopTime="0.00" timeLoss="3.19" rerouteNo="1" devices="tripinfo_106 routing_106" vType="DEFAULT_BIKETYPE" speedFactor="0.94" vaporized=""/>
    <tripinfo id="5" depart="2.00" departLane="-723990057#2_0" departPos="6.92" departPosLat="0.00" departSpeed="22.22" departDelay="0.00" arrival="128.40" arrivalLane="155315719#1_0" arrivalPos="159.17" arrivalPosLat="0.00" arrivalSpeed="22.13" duration="126.40" routeLength="2389.91" waitingTime="0.00" waitingCount="0" stopTime="0.00" timeLoss="16.05" rerouteNo="1" devices="tripinfo_5 routing_5" vType="car" speedFactor="1.14" vaporized=""/>
    <tripinfo id="245" depart="98.00" departLane="-723990057#3_0" departPos="22.58" departPosLat="0.00" departSpeed="6.60" departDelay="0.00" arrival="128.90" arrivalLane="-723990057#2_0" arrivalPos="158.77" arrivalPosLat="-2.92" arrivalSpeed="6.59" duration="30.90" routeLength="202.74" waitingTime="0.00" waitingCount="0" stopTime="0.00" timeLoss="0.14" rerouteNo="0" devices="tripinfo_245 routing_245" vType="DEFAULT_BIKETYPE" speedFactor="1.19" vaporized=""/>
    <tripinfo id="27" depart="10.80" departLane="721126897#3_2" departPos="170.89" departPosLat="0.00" departSpeed="16.67" departDelay="0.00" arrival="130.10" arrivalLane="721126897#12_1" arrivalPos="294.58" arrivalPosLat="-0.00" arrivalSpeed="16.63" duration="119.30" routeLength="1975.91" waitingTime="0.00" waitingCount="0" stopTime="0.00" timeLoss="0.71" rerouteNo="1" devices="tripinfo_27 routing_27" vType="motorbike" speedFactor="1.16" vaporized=""/>
    <tripinfo id="339" depart="135.60" departLane="-722466950_0" departPos="1.73" departPosLat="0.00" departSpeed="16.67" departDelay="0.00" arrival="135.80" arrivalLane="-722466950_0" arrivalPos="4.85" arrivalPosLat="0.00" arrivalSpeed="16.53" duration="0.20" routeLength="3.12" waitingTime="0.00" waitingCount="0" stopTime="0.00" timeLoss="0.00" rerouteNo="1" devices="tripinfo_339 routing_339" vType="motorbike" speedFactor="1.23" vaporized=""/>
    <tripinfo id="23" depart="9.20" departLane="-155315719#2_0" departPos="68.71" departPosLat="0.00" departSpeed="19.44" departDelay="0.00" arrival="141.80" arrivalLane="1056899464#1_0" arrivalPos="90.34" arrivalPosLat="0.00" arrivalSpeed="12.77" duration="132.60" routeLength="1741.55" waitingTime="0.00" waitingCount="0" stopTime="0.00" timeLoss="26.07" rerouteNo="1" devices="tripinfo_23 routing_23" vType="truck" speedFactor="0.92" vaporized=""/>
    <tripinfo id="247" depart="98.80" departLane="1149579534_0" departPos="0.07" departPosLat="0.00" departSpeed="0.96" departDelay="0.00" arrival="142.00" arrivalLane="721131934#4_1" arrivalPos="150.32" arrivalPosLat="0.12" arrivalSpeed="13.64" duration="43.20" routeLength="522.32" waitingTime="2.30" waitingCount="1" stopTime="0.00" timeLoss="9.80" rerouteNo="1" devices="tripinfo_247 routing_247" vType="motorbike" speedFactor="0.91" vaporized=""/>
    <tripinfo id="130" depart="52.00" departLane="721131963#3_2" departPos="252.66" departPosLat="0.00" departSpeed="16.67" departDelay="0.00" arrival="154.20" arrivalLane="721131966#0_0" arrivalPos="9.73" arrivalPosLat="-0.00" arrivalSpeed="7.97" duration="102.20" routeLength="1543.91" waitingTime="0.00" waitingCount="0" stopTime="0.00" timeLoss="6.52" rerouteNo="1" devices="tripinfo_130 routing_130" vType="bus" speedFactor="0.86" vaporized=""/>
    <tripinfo id="87" depart="34.80" departLane="721131946#6_2" departPos="168.86" departPosLat="0.00" departSpeed="16.67" departDelay="0.00" arrival="155.90" arrivalLane="-721131943_0" arrivalPos="0.20" arrivalPosLat="-0.02" arrivalSpeed="5.07" duration="121.10" routeLength="1585.35" waitingTime="17.10" waitingCount="1" stopTime="0.00" timeLoss="24.17" rerouteNo="1" devices="tripinfo_87 routing_87" vType="motorbike" speedFactor="1.16" vaporized=""/>
    <tripinfo id="316" depart="126.40" departLane="1056899464#2_0" departPos="53.74" departPosLat="0.00" departSpeed="3.31" departDelay="0.00" arrival="157.30" arrivalLane="-155315711_0" arrivalPos="80.37" arrivalPosLat="0.00" arrivalSpeed="12.09" duration="30.90" routeLength="257.85" waitingTime="0.00" waitingCount="0" stopTime="0.00" timeLoss="7.93" rerouteNo="1" devices="tripinfo_316 routing_316" vType="truck" speedFactor="0.87" vaporized=""/>
    <tripinfo id="128" depart="51.20" departLane="-155315688#0_0" departPos="26.52" departPosLat="0.00" departSpeed="12.46" departDelay="0.00" arrival="160.30" arrivalLane="-722466951_0" arrivalPos="3.72" arrivalPosLat="0.00" arrivalSpeed="4.53" duration="109.10" routeLength="633.03" waitingTime="48.50" waitingCount="2" stopTime="0.00" timeLoss="67.94" rerouteNo="1" devices="tripinfo_128 routing_128" vType="car" speedFactor="0.90" vaporized=""/>
    <tripinfo id="31" depart="12.40" departLane="31905214_0" departPos="35.15" departPosLat="0.00" departSpeed="22.22" departDelay="0.00" arrival="160.40" arrivalLane="721131934#6_1" arrivalPos="123.12" arrivalPosLat="0.00" arrivalSpeed="19.96" duration="148.00" routeLength="2550.29" waitingTime="5.50" waitingCount="1" stopTime="0.00" timeLoss="27.30" rerouteNo="1" devices="tripinfo_31 routing_31" vType="car" speedFactor="0.82" vaporized=""/>
    <tripinfo id="8" depart="3.20" departLane="-723990057#3_0" departPos="28.32" departPosLat="0.00" departSpeed="12.68" departDelay="0.00" arrival="161.70" arrivalLane="591704635#0_0" arrivalPos="394.13" arrivalPosLat="0.60" arrivalSpeed="16.66" duration="158.50" routeLength="2323.44" waitingTime="0.00" waitingCount="0" stopTime="0.00" timeLoss="15.24" rerouteNo="1" devices="tripinfo_8 routing_8" vType="bus" speedFactor="0.85" vaporized=""/>
    <tripinfo id="396" depart="158.40" departLane="721131963#1_0" departPos="573.02" departPosLat="0.00" departSpeed="19.44" departDelay="0.00" arrival="162.20" arrivalLane="721131963#1_0" arrivalPos="646.80" arrivalPosLat="0.00" arrivalSpeed="19.42" duration="3.80" routeLength="73.78" waitingTime="0.00" waitingCount="0" stopTime="0.00" timeLoss="0.00" rerouteNo="1" devices="tripinfo_396 routing_396" vType="truck" speedFactor="0.90" vaporized=""/>
    <tripinfo id="188" depart="75.30" departLane="721126897#7_2" departPos="596.29" departPosLat="0.00" departSpeed="16.67" departDelay="0.10" arrival="162.50" arrivalLane="1149578945_0" arrivalPos="0.74" arrivalPosLat="0.06" arrivalSpeed="6.34" duration="87.20" routeLength="1421.29" waitingTime="0.00" waitingCount="0" stopTime="0.00" timeLoss="1.12" rerouteNo="1" devices="tripinfo_188 routing_188" vType="bus" speedFactor="0.95" vaporized=""/>
    <tripinfo id="215" depart="86.10" departLane="-155775198#0_0" departPos="224.56" departPosLat="0.00" departSpeed="16.67" departDelay="0.10" arrival="164.10" arrivalLane="152227691#1_1" arrivalPos="77.73" arrivalPosLat="-0.25" arrivalSpeed="16.50" duration="78.00" routeLength="1092.94" waitingTime="0.00" waitingCount="0" stopTime="0.00" timeLoss="11.54" rerouteNo="1" devices="tripinfo_215 routing_215" vType="motorbike" speedFactor="1.25" vaporized=""/>
    <tripinfo id="79" depart="31.60" departLane="-724005148_0" departPos="125.16" departPosLat="0.00" departSpeed="5.99" departDelay="0.00" arrival="165.40" arrivalLane="-723990057#2_0" arrivalPos="158.77" arrivalPosLat="-0.12" arrivalSpeed="17.31" duration="133.80" routeLength="2134.98" waitingTime="0.00" waitingCount="0" stopTime="0.00" timeLoss="19.80" rerouteNo="1" devices="tripinfo_79 routing_79" vType="truck" speedFactor="1.08" vaporized=""/>
    <tripinfo id="77" depart="30.80" departLane="-205021436#1_0" departPos="75.14" departPosLat="0.00" departSpeed="16.67" departDelay="0.00" arrival="165.80" arrivalLane="-723990057#4_0" arrivalPos="37.18" arrivalPosLat="0.00" arrivalSpeed="16.62" duration="135.00" routeLength="1718.23" waitingTime="21.00" waitingCount="1" stopTime="0.00" timeLoss="30.94" rerouteNo="1" devices="tripinfo_77 routing_77" vType="motorbike" speedFactor="1.29" vaporized=""/>
    <tripinfo id="184" depart="73.60" departLane="-100954129#0_0" departPos="53.35" departPosLat="0.00" departSpeed="6.30" departDelay="0.00" arrival="166.40" arrivalLane="723990054_0" arrivalPos="61.78" arrivalPosLat="0.00" arrivalSpeed="14.72" duration="92.80" routeLength="1508.89" waitingTime="0.00" waitingCount="0" stopTime="0.00" timeLoss="20.11" rerouteNo="1" devices="tripinfo_184 routing_184" vType="car" speedFactor="0.93" vaporized=""/>
    <tripinfo id="1" depart="0.40" departLane="100954163#8_0" departPos="166.52" departPosLat="0.00" departSpeed="6.01" departDelay="0.00" arrival="166.60" arrivalLane="-723990057#3_0" arrivalPos="51.93" arrivalPosLat="-2.92" arrivalSpeed="6.00" duration="166.20" routeLength="709.04" waitingTime="39.60" waitingCount="2" stopTime="0.00" timeLoss="48.30" rerouteNo="1" devices="tripinfo_1 routing_1" vType="DEFAULT_BIKETYPE" speedFactor="1.08" vaporized=""/>
    <tripinfo id="345" depart="138.00" departLane="721131934#7_1" departPos="71.82" departPosLat="0.00" departSpeed="16.67" departDelay="0.00" arrival="167.60" arrivalLane="152227691#6_1" arrivalPos="162.57" arrivalPosLat="0.00" arrivalSpeed="16.55" duration="29.60" routeLength="412.03" waitingTime="0.00" waitingCount="0" stopTime="0.00" timeLoss="3.64" rerouteNo="1" devices="tripinfo_345 routing_345" vType="motorbike" speedFactor="1.19" vaporized=""/>
    <tripinfo id="279" depart="111.60" departLane="721131946#14_1" departPos="101.97" departPosLat="0.00" departSpeed="16.67" departDelay="0.00" arrival="168.80" arrivalLane="1149579536#2_0" arrivalPos="200.62" arrivalPosLat="0.00" arrivalSpeed="16.51" duration="57.20" routeLength="596.91" waitingTime="8.40" waitingCount="1" stopTime="0.00" timeLoss="21.15" rerouteNo="1" devices="tripinfo_279 routing_279" vType="motorbike" speedFactor="1.31" vaporized=""/>
    <tripinfo id="42" depart="16.80" departLane="1149580107#4_0" departPos="19.15" departPosLat="0.00" departSpeed="19.10" departDelay="0.00" arrival="169.60" arrivalLane="-723990056_0" arrivalPos="75.47" arrivalPosLat="0.00" arrivalSpeed="12.76" duration="152.80" routeLength="2001.83" waitingTime="13.90" waitingCount="1" stopTime="0.00" timeLoss="45.75" rerouteNo="1" devices="tripinfo_42 routing_42" vType="truck" speedFactor="0.90" vaporized=""/>
    <tripinfo id="357" depart="142.80" departLane="155315683_0" departPos="94.04" departPosLat="0.00" departSpeed="14.32" departDelay="0.00" arrival="169.60" arrivalLane="-155315683_0" arrivalPos="201.94" arrivalPosLat="0.00" arrivalSpeed="14.23" duration="26.80" routeLength="315.10" waitingTime="0.00" waitingCount="0" stopTime="0.00" timeLoss="3.72" rerouteNo="0" devices="tripinfo_357 routing_357" vType="car" speedFactor="1.03" vaporized=""/>
    <tripinfo id="121" depart="48.40" departLane="155775198#1_0" departPos="101.74" departPosLat="0.00" departSpeed="22.22" departDelay="0.00" arrival="170.70" arrivalLane="723990057#3_0" arrivalPos="51.93" arrivalPosLat="-0.00" arrivalSpeed="14.43" duration="122.30" routeLength="1384.21" waitingTime="25.70" waitingCount="1" stopTime="0.00" timeLoss="44.93" rerouteNo="1" devices="tripinfo_121 routing_121" vType="car" speedFactor="0.93" vaporized=""/>
    <tripinfo id="117" depart="46.80" departLane="-766326334.90_0" departPos="114.54" departPosLat="0.00" departSpeed="14.83" departDelay="0.00" arrival="171.50" arrivalLane="-155775200#1_0" arrivalPos="740.71" arrivalPosLat="-0.00" arrivalSpeed="16.48" duration="124.70" routeLength="1808.35" waitingTime="3.00" waitingCount="1" stopTime="0.00" timeLoss="14.29" rerouteNo="1" devices="tripinfo_117 routing_117" vType="motorbike" speedFactor="1.07" vaporized=""/>
    <tripinfo id="89" depart="35.60" departLane="152227686#1_0" departPos="0.23" departPosLat="0.00" departSpeed="6.21" departDelay="0.00" arrival="172.00" arrivalLane="152227697#3_0" arrivalPos="3.45" arrivalPosLat="-1.27" arrivalSpeed="4.68" duration="136.40" routeLength="687.65" waitingTime="19.40" waitingCount="1" stopTime="0.00" timeLoss="24.70" rerouteNo="1" devices="tripinfo_89 routing_89" vType="DEFAULT_BIKETYPE" speedFactor="1.12" vaporized=""/>
    <tripinfo id="332" depart="132.80" departLane="721131939_0" departPos="1.01" departPosLat="0.00" departSpeed="2.19" departDelay="0.00" arrival="175.00" arrivalLane="708790255#0_0" arrivalPos="45.01" arrivalPosLat="-0.00" arrivalSpeed="20.47" duration="42.20" routeLength="757.43" waitingTime="0.00" waitingCount="0" stopTime="0.00" timeLoss="5.67" rerouteNo="1" devices="tripinfo_332 routing_332" vType="car" speedFactor="0.93" vaporized=""/>
    <tripinfo id="214" depart="85.60" departLane="721131937#8_2" departPos="25.70" departPosLat="0.00" departSpeed="22.22" departDelay="0.00" arrival="176.90" arrivalLane="721131946#14_0" arrivalPos="244.51" arrivalPosLat="-0.00" arrivalSpeed="20.46" duration="91.30" routeLength="1788.78" waitingTime="0.00" waitingCount="0" stopTime="0.00" timeLoss="9.04" rerouteNo="1" devices="tripinfo_214 routing_214" vType="car" speedFactor="1.06" vaporized=""/>
    <tripinfo id="57" depart="22.80" departLane="722464593#1_0" departPos="225.57" departPosLat="0.00" departSpeed="22.22" departDelay="0.00" arrival="178.50" arrivalLane="721131963#3_0" arrivalPos="496.13" arrivalPosLat="0.87" arrivalSpeed="22.17" duration="155.70" routeLength="2966.86" waitingTime="0.00" waitingCount="0" stopTime="0.00" timeLoss="20.09" rerouteNo="1" devices="tripinfo_57 routing_57" vType="car" speedFactor="0.96" vaporized=""/>
    <tripinfo id="135" depart="54.00" departLane="721131946#8_2" departPos="159.37" departPosLat="0.00" departSpeed="16.67" departDelay="0.00" arrival="183.90" arrivalLane="1119166765#3_1" arrivalPos="305.86" arrivalPosLat="-0.06" arrivalSpeed="16.64" duration="129.90" routeLength="1701.07" waitingTime="5.20" waitingCount="3" stopTime="0.00" timeLoss="27.82" rerouteNo="1" devices="tripinfo_135 routing_135" vType="motorbike" speedFactor="1.29" vaporized=""/>
    <tripinfo id="204" depart="81.60" departLane="721126897#15_2" departPos="7.64" departPosLat="0.00" departSpeed="6.63" departDelay="0.00" arrival="184.00" arrivalLane="1149579535_0" arrivalPos="0.95" arrivalPosLat="0.30" arrivalSpeed="4.04" duration="102.40" routeLength="1419.29" waitingTime="3.90" waitingCount="1" stopTime="0.00" timeLoss="15.65" rerouteNo="1" devices="tripinfo_204 routing_204" vType="motorbike" speedFactor="1.06" vaporized=""/>
    <tripinfo id="329" depart="131.60" departLane="-152227686#0_0" departPos="19.11" departPosLat="0.00" departSpeed="16.67" departDelay="0.00" arrival="184.00" arrivalLane="-442885101#0_0" arrivalPos="130.21" arrivalPosLat="0.80" arrivalSpeed="4.51" duration="52.40" routeLength="476.01" waitingTime="6.00" waitingCount="2" stopTime="0.00" timeLoss="22.56" rerouteNo="1" devices="tripinfo_329 routing_329" vType="motorbike" speedFactor="1.22" vaporized=""/>
    <tripinfo id="43" depart="17.20" departLane="934254484#1_0" departPos="35.61" departPosLat="0.00" departSpeed="21.78" departDelay="0.00" arrival="188.20" arrivalLane="155315719#3_0" arrivalPos="368.76" arrivalPosLat="0.00" arrivalSpeed="21.77" duration="171.00" routeLength="3325.53" waitingTime="0.00" waitingCount="0" stopTime="0.00" timeLoss="15.52" rerouteNo="1" devices="tripinfo_43 routing_43" vType="car" speedFactor="0.98" vaporized=""/>
    <tripinfo id="208" depart="83.20" departLane="-850760537#1_0" departPos="164.99" departPosLat="0.00" departSpeed="14.15" departDelay="0.00" arrival="189.00" arrivalLane="155315678#5_0" arrivalPos="269.67" arrivalPosLat="0.20" arrivalSpeed="22.17" duration="105.80" routeLength="1734.82" waitingTime="0.00" waitingCount="0" stopTime="0.00" timeLoss="16.63" rerouteNo="1" devices="tripinfo_208 routing_208" vType="car" speedFactor="1.17" vaporized=""/>
    <tripinfo id="256" depart="102.40" departLane="721131938_0" departPos="0.02" departPosLat="0.00" departSpeed="0.96" departDelay="0.00" arrival="190.10" arrivalLane="1149579537#6_1" arrivalPos="176.44" arrivalPosLat="-0.22" arrivalSpeed="5.87" duration="87.70" routeLength="697.01" waitingTime="2.30" waitingCount="1" stopTime="0.00" timeLoss="42.78" rerouteNo="1" devices="tripinfo_256 routing_256" vType="bus" speedFactor="1.00" vaporized=""/>
    <tripinfo id="85" depart="34.00" departLane="723990057#1_0" departPos="91.07" departPosLat="0.00" departSpeed="16.67" departDelay="0.00" arrival="190.30" arrivalLane="442885101#1_1" arrivalPos="36.21" arrivalPosLat="0.00" arrivalSpeed="11.09" duration="156.30" routeLength="2202.31" waitingTime="0.00" waitingCount="0" stopTime="0.00" timeLoss="20.13" rerouteNo="1" devices="tripinfo_85 routing_85" vType="motorbike" speedFactor="1.15" vaporized=""/>
    <tripinfo id="162" depart="66.90" departLane="-1149576119_0" departPos="0.22" departPosLat="0.00" departSpeed="1.98" departDelay="2.10" arrival="190.30" arrivalLane="721131937#6_1" arrivalPos="273.02" arrivalPosLat="0.00" arrivalSpeed="21.45" duration="123.40" routeLength="950.18" waitingTime="59.80" waitingCount="1" stopTime="0.00" timeLoss="73.82" rerouteNo="1" devices="tripinfo_162 routing_162" vType="car" speedFactor="0.78" vaporized=""/>
    <tripinfo id="63" depart="25.20" departLane="-1117528627#2_0" departPos="80.10" departPosLat="0.00" departSpeed="16.67" departDelay="0.00" arrival="190.60" arrivalLane="723990056_0" arrivalPos="75.32" arrivalPosLat="0.84" arrivalSpeed="16.12" duration="165.40" routeLength="1522.88" waitingTime="59.30" waitingCount="2" stopTime="0.00" timeLoss="72.46" rerouteNo="1" devices="tripinfo_63 routing_63" vType="motorbike" speedFactor="1.12" vaporized=""/>
    <tripinfo id="369" depart="147.60" departLane="1149579536#2_1" departPos="78.68" departPosLat="0.00" departSpeed="22.22" departDelay="0.00" arrival="195.80" arrivalLane="1149579534_0" arrivalPos="0.22" arrivalPosLat="0.01" arrivalSpeed="6.14" duration="48.20" routeLength="902.84" waitingTime="0.00" waitingCount="0" stopTime="0.00" timeLoss="6.71" rerouteNo="1" devices="tripinfo_369 routing_369" vType="car" speedFactor="1.02" vaporized=""/>
    <tripinfo id="102" depart="40.80" departLane="155315678#0_0" departPos="349.12" departPosLat="0.00" departSpeed="16.67" departDelay="0.00" arrival="198.60" arrivalLane="-723990054_0" arrivalPos="61.78" arrivalPosLat="0.00" arrivalSpeed="14.82" duration="157.80" routeLength="1569.13" waitingTime="41.00" waitingCount="2" stopTime="0.00" timeLoss="59.76" rerouteNo="1" devices="tripinfo_102 routing_102" vType="motorbike" speedFactor="1.13" vaporized=""/>
    <tripinfo id="404" depart="161.60" departLane="31905195#2_0" departPos="19.79" departPosLat="0.00" departSpeed="14.65" departDelay="0.00" arrival="199.50" arrivalLane="31905195#1_0" arrivalPos="78.10" arrivalPosLat="0.00" arrivalSpeed="14.61" duration="37.90" routeLength="391.99" waitingTime="0.00" waitingCount="0" stopTime="0.00" timeLoss="9.28" rerouteNo="1" devices="tripinfo_404 routing_404" vType="motorbike" speedFactor="1.05" vaporized=""/>
</tripinfos>
